<?xml version="1.0" encoding="UTF-8"?>

<!-- generated on 2024-09-15 16:36:53 by Eclipse SUMO sumo Version 1.19.0
<configuration xmlns:xsi="http://www.w3.org/2001/XMLSchema-instance" xsi:noNamespaceSchemaLocation="http://sumo.dlr.de/xsd/sumoConfiguration.xsd">

    <input>
        <net-file value="Network_and_config/grid4x4.net.xml"/>
        <route-files value="Network_and_config/rou.rou.xml,Network_and_config/grid4x4_1.rou.xml"/>
        <additional-files value="Network_and_config/det.add.xml"/>
    </input>

    <output>
        <summary-output value="Network_and_config/summary.xml"/>
        <tripinfo-output value="Network_and_config/tripinfo.xml"/>
    </output>

    <processing>
        <time-to-teleport value="-1"/>
    </processing>

    <report>
        <no-step-log value="true"/>
    </report>

    <random_number>
        <seed value="100"/>
    </random_number>

</configuration>
-->

<detector xmlns:xsi="http://www.w3.org/2001/XMLSchema-instance" xsi:noNamespaceSchemaLocation="http://sumo.dlr.de/xsd/det_e1_file.xsd">
    <interval begin="0.00" end="5.00" id="B3A3_det" nVehContrib="0" flow="0.00" occupancy="0.00" speed="-1.00" harmonicMeanSpeed="-1.00" length="-1.00" nVehEntered="0"/>
    <interval begin="5.00" end="10.00" id="B3A3_det" nVehContrib="0" flow="0.00" occupancy="0.00" speed="-1.00" harmonicMeanSpeed="-1.00" length="-1.00" nVehEntered="0"/>
    <interval begin="10.00" end="15.00" id="B3A3_det" nVehContrib="0" flow="0.00" occupancy="0.00" speed="-1.00" harmonicMeanSpeed="-1.00" length="-1.00" nVehEntered="0"/>
    <interval begin="15.00" end="20.00" id="B3A3_det" nVehContrib="0" flow="0.00" occupancy="0.00" speed="-1.00" harmonicMeanSpeed="-1.00" length="-1.00" nVehEntered="0"/>
    <interval begin="20.00" end="25.00" id="B3A3_det" nVehContrib="0" flow="0.00" occupancy="0.00" speed="-1.00" harmonicMeanSpeed="-1.00" length="-1.00" nVehEntered="0"/>
    <interval begin="25.00" end="30.00" id="B3A3_det" nVehContrib="0" flow="0.00" occupancy="0.00" speed="-1.00" harmonicMeanSpeed="-1.00" length="-1.00" nVehEntered="0"/>
    <interval begin="30.00" end="35.00" id="B3A3_det" nVehContrib="0" flow="0.00" occupancy="0.00" speed="-1.00" harmonicMeanSpeed="-1.00" length="-1.00" nVehEntered="0"/>
    <interval begin="35.00" end="40.00" id="B3A3_det" nVehContrib="0" flow="0.00" occupancy="0.00" speed="-1.00" harmonicMeanSpeed="-1.00" length="-1.00" nVehEntered="0"/>
    <interval begin="40.00" end="45.00" id="B3A3_det" nVehContrib="0" flow="0.00" occupancy="0.00" speed="-1.00" harmonicMeanSpeed="-1.00" length="-1.00" nVehEntered="0"/>
    <interval begin="45.00" end="50.00" id="B3A3_det" nVehContrib="0" flow="0.00" occupancy="0.00" speed="-1.00" harmonicMeanSpeed="-1.00" length="-1.00" nVehEntered="0"/>
    <interval begin="50.00" end="55.00" id="B3A3_det" nVehContrib="0" flow="0.00" occupancy="0.00" speed="-1.00" harmonicMeanSpeed="-1.00" length="-1.00" nVehEntered="0"/>
    <interval begin="55.00" end="60.00" id="B3A3_det" nVehContrib="0" flow="0.00" occupancy="0.00" speed="-1.00" harmonicMeanSpeed="-1.00" length="-1.00" nVehEntered="0"/>
    <interval begin="60.00" end="65.00" id="B3A3_det" nVehContrib="0" flow="0.00" occupancy="0.00" speed="-1.00" harmonicMeanSpeed="-1.00" length="-1.00" nVehEntered="0"/>
    <interval begin="65.00" end="70.00" id="B3A3_det" nVehContrib="2" flow="1440.00" occupancy="86.30" speed="3.04" harmonicMeanSpeed="3.02" length="5.00" nVehEntered="3"/>
    <interval begin="70.00" end="75.00" id="B3A3_det" nVehContrib="2" flow="1440.00" occupancy="54.05" speed="2.73" harmonicMeanSpeed="2.70" length="5.00" nVehEntered="1"/>
    <interval begin="75.00" end="80.00" id="B3A3_det" nVehContrib="1" flow="720.00" occupancy="59.02" speed="2.56" harmonicMeanSpeed="2.56" length="5.00" nVehEntered="2"/>
    <interval begin="80.00" end="85.00" id="B3A3_det" nVehContrib="1" flow="720.00" occupancy="52.57" speed="3.07" harmonicMeanSpeed="3.07" length="5.00" nVehEntered="1"/>
    <interval begin="85.00" end="90.00" id="B3A3_det" nVehContrib="1" flow="720.00" occupancy="58.71" speed="2.58" harmonicMeanSpeed="2.58" length="5.00" nVehEntered="2"/>
    <interval begin="90.00" end="95.00" id="B3A3_det" nVehContrib="2" flow="1440.00" occupancy="91.66" speed="2.81" harmonicMeanSpeed="2.79" length="5.00" nVehEntered="2"/>
    <interval begin="95.00" end="100.00" id="B3A3_det" nVehContrib="1" flow="720.00" occupancy="30.88" speed="3.24" harmonicMeanSpeed="3.24" length="5.00" nVehEntered="1"/>
    <interval begin="100.00" end="105.00" id="B3A3_det" nVehContrib="2" flow="1440.00" occupancy="77.78" speed="2.57" harmonicMeanSpeed="2.57" length="5.00" nVehEntered="2"/>
    <interval begin="105.00" end="110.00" id="B3A3_det" nVehContrib="1" flow="720.00" occupancy="61.15" speed="2.43" harmonicMeanSpeed="2.43" length="5.00" nVehEntered="2"/>
    <interval begin="110.00" end="115.00" id="B3A3_det" nVehContrib="2" flow="1440.00" occupancy="48.89" speed="2.96" harmonicMeanSpeed="2.90" length="5.00" nVehEntered="1"/>
    <interval begin="115.00" end="120.00" id="B3A3_det" nVehContrib="2" flow="1440.00" occupancy="68.81" speed="2.91" harmonicMeanSpeed="2.91" length="5.00" nVehEntered="2"/>
    <interval begin="120.00" end="125.00" id="B3A3_det" nVehContrib="0" flow="0.00" occupancy="40.00" speed="-1.00" harmonicMeanSpeed="-1.00" length="-1.00" nVehEntered="1"/>
    <interval begin="125.00" end="130.00" id="B3A3_det" nVehContrib="2" flow="1440.00" occupancy="84.37" speed="2.38" harmonicMeanSpeed="2.37" length="5.00" nVehEntered="2"/>
    <interval begin="130.00" end="135.00" id="B3A3_det" nVehContrib="2" flow="1440.00" occupancy="82.82" speed="2.46" harmonicMeanSpeed="2.42" length="5.00" nVehEntered="2"/>
    <interval begin="135.00" end="140.00" id="B3A3_det" nVehContrib="1" flow="720.00" occupancy="53.57" speed="2.98" harmonicMeanSpeed="2.98" length="5.00" nVehEntered="2"/>
    <interval begin="140.00" end="145.00" id="B3A3_det" nVehContrib="2" flow="1440.00" occupancy="44.97" speed="3.08" harmonicMeanSpeed="3.08" length="5.00" nVehEntered="1"/>
    <interval begin="145.00" end="150.00" id="B3A3_det" nVehContrib="1" flow="720.00" occupancy="54.08" speed="2.93" harmonicMeanSpeed="2.93" length="5.00" nVehEntered="2"/>
    <interval begin="150.00" end="155.00" id="B3A3_det" nVehContrib="3" flow="2160.00" occupancy="82.03" speed="2.96" harmonicMeanSpeed="2.94" length="5.00" nVehEntered="2"/>
    <interval begin="155.00" end="160.00" id="B3A3_det" nVehContrib="1" flow="720.00" occupancy="34.69" speed="2.88" harmonicMeanSpeed="2.88" length="5.00" nVehEntered="1"/>
    <interval begin="160.00" end="165.00" id="B3A3_det" nVehContrib="2" flow="1440.00" occupancy="71.73" speed="2.79" harmonicMeanSpeed="2.79" length="5.00" nVehEntered="2"/>
    <interval begin="165.00" end="170.00" id="B3A3_det" nVehContrib="1" flow="720.00" occupancy="65.10" speed="2.22" harmonicMeanSpeed="2.22" length="5.00" nVehEntered="2"/>
    <interval begin="170.00" end="175.00" id="B3A3_det" nVehContrib="2" flow="1440.00" occupancy="45.35" speed="3.06" harmonicMeanSpeed="3.06" length="5.00" nVehEntered="1"/>
    <interval begin="175.00" end="180.00" id="B3A3_det" nVehContrib="1" flow="720.00" occupancy="82.32" speed="2.36" harmonicMeanSpeed="2.36" length="5.00" nVehEntered="2"/>
    <interval begin="180.00" end="185.00" id="B3A3_det" nVehContrib="2" flow="1440.00" occupancy="41.21" speed="2.47" harmonicMeanSpeed="2.46" length="5.00" nVehEntered="1"/>
    <interval begin="185.00" end="190.00" id="B3A3_det" nVehContrib="2" flow="1440.00" occupancy="84.78" speed="3.09" harmonicMeanSpeed="3.09" length="5.00" nVehEntered="3"/>
    <interval begin="190.00" end="195.00" id="B3A3_det" nVehContrib="2" flow="1440.00" occupancy="46.28" speed="3.05" harmonicMeanSpeed="3.02" length="5.00" nVehEntered="1"/>
    <interval begin="195.00" end="200.00" id="B3A3_det" nVehContrib="1" flow="720.00" occupancy="43.08" speed="2.32" harmonicMeanSpeed="2.32" length="5.00" nVehEntered="1"/>
    <interval begin="200.00" end="205.00" id="B3A3_det" nVehContrib="2" flow="1440.00" occupancy="79.89" speed="2.59" harmonicMeanSpeed="2.50" length="5.00" nVehEntered="2"/>
    <interval begin="205.00" end="210.00" id="B3A3_det" nVehContrib="1" flow="720.00" occupancy="56.97" speed="2.71" harmonicMeanSpeed="2.71" length="5.00" nVehEntered="2"/>
    <interval begin="210.00" end="215.00" id="B3A3_det" nVehContrib="1" flow="720.00" occupancy="59.05" speed="2.56" harmonicMeanSpeed="2.56" length="5.00" nVehEntered="1"/>
    <interval begin="215.00" end="220.00" id="B3A3_det" nVehContrib="2" flow="1440.00" occupancy="44.47" speed="2.45" harmonicMeanSpeed="2.37" length="5.00" nVehEntered="1"/>
    <interval begin="220.00" end="225.00" id="B3A3_det" nVehContrib="2" flow="1440.00" occupancy="67.90" speed="2.96" harmonicMeanSpeed="2.95" length="5.00" nVehEntered="2"/>
    <interval begin="225.00" end="230.00" id="B3A3_det" nVehContrib="1" flow="720.00" occupancy="64.39" speed="2.25" harmonicMeanSpeed="2.25" length="5.00" nVehEntered="2"/>
    <interval begin="230.00" end="235.00" id="B3A3_det" nVehContrib="2" flow="1440.00" occupancy="39.86" speed="3.34" harmonicMeanSpeed="3.34" length="5.00" nVehEntered="1"/>
    <interval begin="235.00" end="240.00" id="B3A3_det" nVehContrib="2" flow="1440.00" occupancy="71.21" speed="2.88" harmonicMeanSpeed="2.81" length="5.00" nVehEntered="2"/>
    <interval begin="240.00" end="245.00" id="B3A3_det" nVehContrib="0" flow="0.00" occupancy="0.00" speed="-1.00" harmonicMeanSpeed="-1.00" length="-1.00" nVehEntered="0"/>
    <interval begin="245.00" end="250.00" id="B3A3_det" nVehContrib="0" flow="0.00" occupancy="0.00" speed="-1.00" harmonicMeanSpeed="-1.00" length="-1.00" nVehEntered="0"/>
    <interval begin="250.00" end="255.00" id="B3A3_det" nVehContrib="0" flow="0.00" occupancy="0.00" speed="-1.00" harmonicMeanSpeed="-1.00" length="-1.00" nVehEntered="0"/>
    <interval begin="255.00" end="260.00" id="B3A3_det" nVehContrib="0" flow="0.00" occupancy="84.60" speed="-1.00" harmonicMeanSpeed="-1.00" length="-1.00" nVehEntered="1"/>
    <interval begin="260.00" end="265.00" id="B3A3_det" nVehContrib="0" flow="0.00" occupancy="100.00" speed="-1.00" harmonicMeanSpeed="-1.00" length="-1.00" nVehEntered="0"/>
    <interval begin="265.00" end="270.00" id="B3A3_det" nVehContrib="0" flow="0.00" occupancy="100.00" speed="-1.00" harmonicMeanSpeed="-1.00" length="-1.00" nVehEntered="0"/>
    <interval begin="270.00" end="275.00" id="B3A3_det" nVehContrib="0" flow="0.00" occupancy="100.00" speed="-1.00" harmonicMeanSpeed="-1.00" length="-1.00" nVehEntered="0"/>
    <interval begin="275.00" end="280.00" id="B3A3_det" nVehContrib="0" flow="0.00" occupancy="100.00" speed="-1.00" harmonicMeanSpeed="-1.00" length="-1.00" nVehEntered="0"/>
    <interval begin="280.00" end="285.00" id="B3A3_det" nVehContrib="0" flow="0.00" occupancy="100.00" speed="-1.00" harmonicMeanSpeed="-1.00" length="-1.00" nVehEntered="0"/>
    <interval begin="285.00" end="290.00" id="B3A3_det" nVehContrib="0" flow="0.00" occupancy="100.00" speed="-1.00" harmonicMeanSpeed="-1.00" length="-1.00" nVehEntered="0"/>
    <interval begin="290.00" end="295.00" id="B3A3_det" nVehContrib="0" flow="0.00" occupancy="100.00" speed="-1.00" harmonicMeanSpeed="-1.00" length="-1.00" nVehEntered="0"/>
    <interval begin="295.00" end="300.00" id="B3A3_det" nVehContrib="0" flow="0.00" occupancy="100.00" speed="-1.00" harmonicMeanSpeed="-1.00" length="-1.00" nVehEntered="0"/>
    <interval begin="300.00" end="305.00" id="B3A3_det" nVehContrib="0" flow="0.00" occupancy="100.00" speed="-1.00" harmonicMeanSpeed="-1.00" length="-1.00" nVehEntered="0"/>
    <interval begin="305.00" end="310.00" id="B3A3_det" nVehContrib="0" flow="0.00" occupancy="100.00" speed="-1.00" harmonicMeanSpeed="-1.00" length="-1.00" nVehEntered="0"/>
    <interval begin="310.00" end="315.00" id="B3A3_det" nVehContrib="0" flow="0.00" occupancy="100.00" speed="-1.00" harmonicMeanSpeed="-1.00" length="-1.00" nVehEntered="0"/>
    <interval begin="315.00" end="320.00" id="B3A3_det" nVehContrib="0" flow="0.00" occupancy="100.00" speed="-1.00" harmonicMeanSpeed="-1.00" length="-1.00" nVehEntered="0"/>
    <interval begin="320.00" end="325.00" id="B3A3_det" nVehContrib="0" flow="0.00" occupancy="100.00" speed="-1.00" harmonicMeanSpeed="-1.00" length="-1.00" nVehEntered="0"/>
    <interval begin="325.00" end="330.00" id="B3A3_det" nVehContrib="0" flow="0.00" occupancy="100.00" speed="-1.00" harmonicMeanSpeed="-1.00" length="-1.00" nVehEntered="0"/>
    <interval begin="330.00" end="335.00" id="B3A3_det" nVehContrib="0" flow="0.00" occupancy="100.00" speed="-1.00" harmonicMeanSpeed="-1.00" length="-1.00" nVehEntered="0"/>
    <interval begin="335.00" end="340.00" id="B3A3_det" nVehContrib="0" flow="0.00" occupancy="100.00" speed="-1.00" harmonicMeanSpeed="-1.00" length="-1.00" nVehEntered="0"/>
    <interval begin="340.00" end="345.00" id="B3A3_det" nVehContrib="0" flow="0.00" occupancy="100.00" speed="-1.00" harmonicMeanSpeed="-1.00" length="-1.00" nVehEntered="0"/>
    <interval begin="345.00" end="350.00" id="B3A3_det" nVehContrib="0" flow="0.00" occupancy="100.00" speed="-1.00" harmonicMeanSpeed="-1.00" length="-1.00" nVehEntered="0"/>
    <interval begin="350.00" end="355.00" id="B3A3_det" nVehContrib="0" flow="0.00" occupancy="100.00" speed="-1.00" harmonicMeanSpeed="-1.00" length="-1.00" nVehEntered="0"/>
    <interval begin="355.00" end="360.00" id="B3A3_det" nVehContrib="0" flow="0.00" occupancy="100.00" speed="-1.00" harmonicMeanSpeed="-1.00" length="-1.00" nVehEntered="0"/>
    <interval begin="360.00" end="365.00" id="B3A3_det" nVehContrib="0" flow="0.00" occupancy="100.00" speed="-1.00" harmonicMeanSpeed="-1.00" length="-1.00" nVehEntered="0"/>
    <interval begin="365.00" end="370.00" id="B3A3_det" nVehContrib="0" flow="0.00" occupancy="100.00" speed="-1.00" harmonicMeanSpeed="-1.00" length="-1.00" nVehEntered="0"/>
    <interval begin="370.00" end="375.00" id="B3A3_det" nVehContrib="0" flow="0.00" occupancy="100.00" speed="-1.00" harmonicMeanSpeed="-1.00" length="-1.00" nVehEntered="0"/>
    <interval begin="375.00" end="380.00" id="B3A3_det" nVehContrib="0" flow="0.00" occupancy="100.00" speed="-1.00" harmonicMeanSpeed="-1.00" length="-1.00" nVehEntered="0"/>
    <interval begin="380.00" end="385.00" id="B3A3_det" nVehContrib="0" flow="0.00" occupancy="80.00" speed="-1.00" harmonicMeanSpeed="-1.00" length="-1.00" nVehEntered="0"/>
    <interval begin="385.00" end="390.00" id="B3A3_det" nVehContrib="0" flow="0.00" occupancy="0.00" speed="-1.00" harmonicMeanSpeed="-1.00" length="-1.00" nVehEntered="0"/>
    <interval begin="390.00" end="395.00" id="B3A3_det" nVehContrib="0" flow="0.00" occupancy="0.00" speed="-1.00" harmonicMeanSpeed="-1.00" length="-1.00" nVehEntered="0"/>
    <interval begin="395.00" end="400.00" id="B3A3_det" nVehContrib="0" flow="0.00" occupancy="0.00" speed="-1.00" harmonicMeanSpeed="-1.00" length="-1.00" nVehEntered="0"/>
    <interval begin="400.00" end="405.00" id="B3A3_det" nVehContrib="0" flow="0.00" occupancy="0.00" speed="-1.00" harmonicMeanSpeed="-1.00" length="-1.00" nVehEntered="0"/>
    <interval begin="405.00" end="410.00" id="B3A3_det" nVehContrib="0" flow="0.00" occupancy="0.00" speed="-1.00" harmonicMeanSpeed="-1.00" length="-1.00" nVehEntered="0"/>
    <interval begin="410.00" end="415.00" id="B3A3_det" nVehContrib="0" flow="0.00" occupancy="0.00" speed="-1.00" harmonicMeanSpeed="-1.00" length="-1.00" nVehEntered="0"/>
    <interval begin="415.00" end="420.00" id="B3A3_det" nVehContrib="0" flow="0.00" occupancy="0.00" speed="-1.00" harmonicMeanSpeed="-1.00" length="-1.00" nVehEntered="0"/>
    <interval begin="420.00" end="425.00" id="B3A3_det" nVehContrib="0" flow="0.00" occupancy="0.00" speed="-1.00" harmonicMeanSpeed="-1.00" length="-1.00" nVehEntered="0"/>
    <interval begin="425.00" end="430.00" id="B3A3_det" nVehContrib="0" flow="0.00" occupancy="0.00" speed="-1.00" harmonicMeanSpeed="-1.00" length="-1.00" nVehEntered="0"/>
    <interval begin="430.00" end="435.00" id="B3A3_det" nVehContrib="0" flow="0.00" occupancy="0.00" speed="-1.00" harmonicMeanSpeed="-1.00" length="-1.00" nVehEntered="0"/>
    <interval begin="435.00" end="440.00" id="B3A3_det" nVehContrib="0" flow="0.00" occupancy="0.00" speed="-1.00" harmonicMeanSpeed="-1.00" length="-1.00" nVehEntered="0"/>
    <interval begin="440.00" end="445.00" id="B3A3_det" nVehContrib="0" flow="0.00" occupancy="0.00" speed="-1.00" harmonicMeanSpeed="-1.00" length="-1.00" nVehEntered="0"/>
    <interval begin="445.00" end="450.00" id="B3A3_det" nVehContrib="0" flow="0.00" occupancy="0.00" speed="-1.00" harmonicMeanSpeed="-1.00" length="-1.00" nVehEntered="0"/>
    <interval begin="450.00" end="455.00" id="B3A3_det" nVehContrib="0" flow="0.00" occupancy="0.00" speed="-1.00" harmonicMeanSpeed="-1.00" length="-1.00" nVehEntered="0"/>
    <interval begin="455.00" end="460.00" id="B3A3_det" nVehContrib="0" flow="0.00" occupancy="0.00" speed="-1.00" harmonicMeanSpeed="-1.00" length="-1.00" nVehEntered="0"/>
    <interval begin="460.00" end="465.00" id="B3A3_det" nVehContrib="0" flow="0.00" occupancy="0.00" speed="-1.00" harmonicMeanSpeed="-1.00" length="-1.00" nVehEntered="0"/>
    <interval begin="465.00" end="470.00" id="B3A3_det" nVehContrib="0" flow="0.00" occupancy="0.00" speed="-1.00" harmonicMeanSpeed="-1.00" length="-1.00" nVehEntered="0"/>
    <interval begin="470.00" end="475.00" id="B3A3_det" nVehContrib="0" flow="0.00" occupancy="0.00" speed="-1.00" harmonicMeanSpeed="-1.00" length="-1.00" nVehEntered="0"/>
    <interval begin="475.00" end="480.00" id="B3A3_det" nVehContrib="0" flow="0.00" occupancy="0.00" speed="-1.00" harmonicMeanSpeed="-1.00" length="-1.00" nVehEntered="0"/>
    <interval begin="480.00" end="485.00" id="B3A3_det" nVehContrib="0" flow="0.00" occupancy="0.00" speed="-1.00" harmonicMeanSpeed="-1.00" length="-1.00" nVehEntered="0"/>
    <interval begin="485.00" end="490.00" id="B3A3_det" nVehContrib="0" flow="0.00" occupancy="0.00" speed="-1.00" harmonicMeanSpeed="-1.00" length="-1.00" nVehEntered="0"/>
    <interval begin="490.00" end="495.00" id="B3A3_det" nVehContrib="0" flow="0.00" occupancy="0.00" speed="-1.00" harmonicMeanSpeed="-1.00" length="-1.00" nVehEntered="0"/>
    <interval begin="495.00" end="500.00" id="B3A3_det" nVehContrib="0" flow="0.00" occupancy="0.00" speed="-1.00" harmonicMeanSpeed="-1.00" length="-1.00" nVehEntered="0"/>
    <interval begin="500.00" end="505.00" id="B3A3_det" nVehContrib="0" flow="0.00" occupancy="0.00" speed="-1.00" harmonicMeanSpeed="-1.00" length="-1.00" nVehEntered="0"/>
    <interval begin="505.00" end="510.00" id="B3A3_det" nVehContrib="0" flow="0.00" occupancy="0.00" speed="-1.00" harmonicMeanSpeed="-1.00" length="-1.00" nVehEntered="0"/>
    <interval begin="510.00" end="515.00" id="B3A3_det" nVehContrib="0" flow="0.00" occupancy="0.00" speed="-1.00" harmonicMeanSpeed="-1.00" length="-1.00" nVehEntered="0"/>
    <interval begin="515.00" end="520.00" id="B3A3_det" nVehContrib="0" flow="0.00" occupancy="0.00" speed="-1.00" harmonicMeanSpeed="-1.00" length="-1.00" nVehEntered="0"/>
    <interval begin="520.00" end="525.00" id="B3A3_det" nVehContrib="0" flow="0.00" occupancy="0.00" speed="-1.00" harmonicMeanSpeed="-1.00" length="-1.00" nVehEntered="0"/>
    <interval begin="525.00" end="530.00" id="B3A3_det" nVehContrib="0" flow="0.00" occupancy="0.00" speed="-1.00" harmonicMeanSpeed="-1.00" length="-1.00" nVehEntered="0"/>
    <interval begin="530.00" end="535.00" id="B3A3_det" nVehContrib="0" flow="0.00" occupancy="0.00" speed="-1.00" harmonicMeanSpeed="-1.00" length="-1.00" nVehEntered="0"/>
    <interval begin="535.00" end="540.00" id="B3A3_det" nVehContrib="0" flow="0.00" occupancy="0.00" speed="-1.00" harmonicMeanSpeed="-1.00" length="-1.00" nVehEntered="0"/>
    <interval begin="540.00" end="545.00" id="B3A3_det" nVehContrib="0" flow="0.00" occupancy="0.00" speed="-1.00" harmonicMeanSpeed="-1.00" length="-1.00" nVehEntered="0"/>
    <interval begin="545.00" end="550.00" id="B3A3_det" nVehContrib="0" flow="0.00" occupancy="0.00" speed="-1.00" harmonicMeanSpeed="-1.00" length="-1.00" nVehEntered="0"/>
    <interval begin="550.00" end="555.00" id="B3A3_det" nVehContrib="0" flow="0.00" occupancy="0.00" speed="-1.00" harmonicMeanSpeed="-1.00" length="-1.00" nVehEntered="0"/>
    <interval begin="555.00" end="560.00" id="B3A3_det" nVehContrib="0" flow="0.00" occupancy="0.00" speed="-1.00" harmonicMeanSpeed="-1.00" length="-1.00" nVehEntered="0"/>
    <interval begin="560.00" end="565.00" id="B3A3_det" nVehContrib="0" flow="0.00" occupancy="0.00" speed="-1.00" harmonicMeanSpeed="-1.00" length="-1.00" nVehEntered="0"/>
    <interval begin="565.00" end="570.00" id="B3A3_det" nVehContrib="0" flow="0.00" occupancy="0.00" speed="-1.00" harmonicMeanSpeed="-1.00" length="-1.00" nVehEntered="0"/>
    <interval begin="570.00" end="575.00" id="B3A3_det" nVehContrib="0" flow="0.00" occupancy="0.00" speed="-1.00" harmonicMeanSpeed="-1.00" length="-1.00" nVehEntered="0"/>
    <interval begin="575.00" end="580.00" id="B3A3_det" nVehContrib="0" flow="0.00" occupancy="0.00" speed="-1.00" harmonicMeanSpeed="-1.00" length="-1.00" nVehEntered="0"/>
    <interval begin="580.00" end="585.00" id="B3A3_det" nVehContrib="0" flow="0.00" occupancy="0.00" speed="-1.00" harmonicMeanSpeed="-1.00" length="-1.00" nVehEntered="0"/>
    <interval begin="585.00" end="590.00" id="B3A3_det" nVehContrib="0" flow="0.00" occupancy="0.00" speed="-1.00" harmonicMeanSpeed="-1.00" length="-1.00" nVehEntered="0"/>
    <interval begin="590.00" end="595.00" id="B3A3_det" nVehContrib="0" flow="0.00" occupancy="0.00" speed="-1.00" harmonicMeanSpeed="-1.00" length="-1.00" nVehEntered="0"/>
    <interval begin="595.00" end="600.00" id="B3A3_det" nVehContrib="0" flow="0.00" occupancy="0.00" speed="-1.00" harmonicMeanSpeed="-1.00" length="-1.00" nVehEntered="0"/>
    <interval begin="600.00" end="605.00" id="B3A3_det" nVehContrib="0" flow="0.00" occupancy="0.00" speed="-1.00" harmonicMeanSpeed="-1.00" length="-1.00" nVehEntered="0"/>
    <interval begin="605.00" end="610.00" id="B3A3_det" nVehContrib="0" flow="0.00" occupancy="0.00" speed="-1.00" harmonicMeanSpeed="-1.00" length="-1.00" nVehEntered="0"/>
    <interval begin="610.00" end="615.00" id="B3A3_det" nVehContrib="0" flow="0.00" occupancy="0.00" speed="-1.00" harmonicMeanSpeed="-1.00" length="-1.00" nVehEntered="0"/>
    <interval begin="615.00" end="620.00" id="B3A3_det" nVehContrib="0" flow="0.00" occupancy="0.00" speed="-1.00" harmonicMeanSpeed="-1.00" length="-1.00" nVehEntered="0"/>
    <interval begin="620.00" end="625.00" id="B3A3_det" nVehContrib="0" flow="0.00" occupancy="0.00" speed="-1.00" harmonicMeanSpeed="-1.00" length="-1.00" nVehEntered="0"/>
    <interval begin="625.00" end="630.00" id="B3A3_det" nVehContrib="0" flow="0.00" occupancy="0.00" speed="-1.00" harmonicMeanSpeed="-1.00" length="-1.00" nVehEntered="0"/>
    <interval begin="630.00" end="635.00" id="B3A3_det" nVehContrib="0" flow="0.00" occupancy="0.00" speed="-1.00" harmonicMeanSpeed="-1.00" length="-1.00" nVehEntered="0"/>
    <interval begin="635.00" end="640.00" id="B3A3_det" nVehContrib="0" flow="0.00" occupancy="0.00" speed="-1.00" harmonicMeanSpeed="-1.00" length="-1.00" nVehEntered="0"/>
    <interval begin="640.00" end="645.00" id="B3A3_det" nVehContrib="0" flow="0.00" occupancy="0.00" speed="-1.00" harmonicMeanSpeed="-1.00" length="-1.00" nVehEntered="0"/>
    <interval begin="645.00" end="650.00" id="B3A3_det" nVehContrib="0" flow="0.00" occupancy="0.00" speed="-1.00" harmonicMeanSpeed="-1.00" length="-1.00" nVehEntered="0"/>
    <interval begin="650.00" end="655.00" id="B3A3_det" nVehContrib="0" flow="0.00" occupancy="0.00" speed="-1.00" harmonicMeanSpeed="-1.00" length="-1.00" nVehEntered="0"/>
    <interval begin="655.00" end="660.00" id="B3A3_det" nVehContrib="0" flow="0.00" occupancy="0.00" speed="-1.00" harmonicMeanSpeed="-1.00" length="-1.00" nVehEntered="0"/>
    <interval begin="660.00" end="665.00" id="B3A3_det" nVehContrib="0" flow="0.00" occupancy="31.12" speed="-1.00" harmonicMeanSpeed="-1.00" length="-1.00" nVehEntered="1"/>
    <interval begin="665.00" end="670.00" id="B3A3_det" nVehContrib="1" flow="720.00" occupancy="81.29" speed="1.08" harmonicMeanSpeed="1.08" length="5.00" nVehEntered="1"/>
    <interval begin="670.00" end="675.00" id="B3A3_det" nVehContrib="0" flow="0.00" occupancy="120.00" speed="-1.00" harmonicMeanSpeed="-1.00" length="-1.00" nVehEntered="2"/>
    <interval begin="675.00" end="680.00" id="B3A3_det" nVehContrib="3" flow="2160.00" occupancy="45.02" speed="3.83" harmonicMeanSpeed="3.53" length="5.00" nVehEntered="2"/>
    <interval begin="680.00" end="685.00" id="B3A3_det" nVehContrib="0" flow="0.00" occupancy="0.00" speed="-1.00" harmonicMeanSpeed="-1.00" length="-1.00" nVehEntered="0"/>
    <interval begin="685.00" end="690.00" id="B3A3_det" nVehContrib="0" flow="0.00" occupancy="44.80" speed="-1.00" harmonicMeanSpeed="-1.00" length="-1.00" nVehEntered="1"/>
    <interval begin="690.00" end="695.00" id="B3A3_det" nVehContrib="2" flow="1440.00" occupancy="83.25" speed="1.90" harmonicMeanSpeed="1.85" length="5.00" nVehEntered="2"/>
    <interval begin="695.00" end="700.00" id="B3A3_det" nVehContrib="2" flow="1440.00" occupancy="27.89" speed="4.20" harmonicMeanSpeed="4.18" length="5.00" nVehEntered="1"/>
    <interval begin="700.00" end="705.00" id="B3A3_det" nVehContrib="1" flow="720.00" occupancy="65.47" speed="1.53" harmonicMeanSpeed="1.53" length="5.00" nVehEntered="1"/>
    <interval begin="705.00" end="710.00" id="B3A3_det" nVehContrib="0" flow="0.00" occupancy="41.08" speed="-1.00" harmonicMeanSpeed="-1.00" length="-1.00" nVehEntered="1"/>
    <interval begin="710.00" end="715.00" id="B3A3_det" nVehContrib="2" flow="1440.00" occupancy="69.29" speed="1.82" harmonicMeanSpeed="1.81" length="5.00" nVehEntered="1"/>
    <interval begin="715.00" end="720.00" id="B3A3_det" nVehContrib="0" flow="0.00" occupancy="31.88" speed="-1.00" harmonicMeanSpeed="-1.00" length="-1.00" nVehEntered="1"/>
    <interval begin="720.00" end="725.00" id="B3A3_det" nVehContrib="1" flow="720.00" occupancy="37.53" speed="1.44" harmonicMeanSpeed="1.44" length="5.00" nVehEntered="0"/>
    <interval begin="725.00" end="730.00" id="B3A3_det" nVehContrib="1" flow="720.00" occupancy="40.95" speed="2.44" harmonicMeanSpeed="2.44" length="5.00" nVehEntered="1"/>
    <interval begin="730.00" end="735.00" id="B3A3_det" nVehContrib="1" flow="720.00" occupancy="21.13" speed="4.73" harmonicMeanSpeed="4.73" length="5.00" nVehEntered="1"/>
    <interval begin="735.00" end="740.00" id="B3A3_det" nVehContrib="0" flow="0.00" occupancy="92.21" speed="-1.00" harmonicMeanSpeed="-1.00" length="-1.00" nVehEntered="1"/>
    <interval begin="740.00" end="745.00" id="B3A3_det" nVehContrib="0" flow="0.00" occupancy="100.00" speed="-1.00" harmonicMeanSpeed="-1.00" length="-1.00" nVehEntered="0"/>
    <interval begin="745.00" end="750.00" id="B3A3_det" nVehContrib="0" flow="0.00" occupancy="100.00" speed="-1.00" harmonicMeanSpeed="-1.00" length="-1.00" nVehEntered="0"/>
    <interval begin="750.00" end="755.00" id="B3A3_det" nVehContrib="1" flow="720.00" occupancy="86.82" speed="0.26" harmonicMeanSpeed="0.26" length="5.00" nVehEntered="0"/>
    <interval begin="755.00" end="760.00" id="B3A3_det" nVehContrib="0" flow="0.00" occupancy="69.54" speed="-1.00" harmonicMeanSpeed="-1.00" length="-1.00" nVehEntered="1"/>
    <interval begin="760.00" end="765.00" id="B3A3_det" nVehContrib="0" flow="0.00" occupancy="100.00" speed="-1.00" harmonicMeanSpeed="-1.00" length="-1.00" nVehEntered="0"/>
    <interval begin="765.00" end="770.00" id="B3A3_det" nVehContrib="0" flow="0.00" occupancy="100.00" speed="-1.00" harmonicMeanSpeed="-1.00" length="-1.00" nVehEntered="0"/>
    <interval begin="770.00" end="775.00" id="B3A3_det" nVehContrib="1" flow="720.00" occupancy="76.62" speed="0.33" harmonicMeanSpeed="0.33" length="5.00" nVehEntered="1"/>
    <interval begin="775.00" end="780.00" id="B3A3_det" nVehContrib="1" flow="720.00" occupancy="73.45" speed="2.99" harmonicMeanSpeed="2.99" length="5.00" nVehEntered="2"/>
    <interval begin="780.00" end="785.00" id="B3A3_det" nVehContrib="1" flow="720.00" occupancy="21.60" speed="1.62" harmonicMeanSpeed="1.62" length="5.00" nVehEntered="0"/>
    <interval begin="785.00" end="790.00" id="B3A3_det" nVehContrib="0" flow="0.00" occupancy="0.00" speed="-1.00" harmonicMeanSpeed="-1.00" length="-1.00" nVehEntered="0"/>
    <interval begin="790.00" end="795.00" id="B3A3_det" nVehContrib="0" flow="0.00" occupancy="0.00" speed="-1.00" harmonicMeanSpeed="-1.00" length="-1.00" nVehEntered="0"/>
    <interval begin="795.00" end="800.00" id="B3A3_det" nVehContrib="0" flow="0.00" occupancy="0.00" speed="-1.00" harmonicMeanSpeed="-1.00" length="-1.00" nVehEntered="0"/>
    <interval begin="800.00" end="805.00" id="B3A3_det" nVehContrib="0" flow="0.00" occupancy="0.00" speed="-1.00" harmonicMeanSpeed="-1.00" length="-1.00" nVehEntered="0"/>
    <interval begin="805.00" end="810.00" id="B3A3_det" nVehContrib="0" flow="0.00" occupancy="0.00" speed="-1.00" harmonicMeanSpeed="-1.00" length="-1.00" nVehEntered="0"/>
    <interval begin="810.00" end="815.00" id="B3A3_det" nVehContrib="0" flow="0.00" occupancy="0.00" speed="-1.00" harmonicMeanSpeed="-1.00" length="-1.00" nVehEntered="0"/>
    <interval begin="815.00" end="820.00" id="B3A3_det" nVehContrib="0" flow="0.00" occupancy="0.00" speed="-1.00" harmonicMeanSpeed="-1.00" length="-1.00" nVehEntered="0"/>
    <interval begin="820.00" end="825.00" id="B3A3_det" nVehContrib="0" flow="0.00" occupancy="0.00" speed="-1.00" harmonicMeanSpeed="-1.00" length="-1.00" nVehEntered="0"/>
    <interval begin="825.00" end="830.00" id="B3A3_det" nVehContrib="0" flow="0.00" occupancy="0.00" speed="-1.00" harmonicMeanSpeed="-1.00" length="-1.00" nVehEntered="0"/>